data_global
_chemical_name_mineral 'Austenite'
loop_
_publ_author_name
'Basinski Z S'
'Hume-Rothery W'
'Sutton A L'
_journal_name_full 'Proceedings of the Royal Society of London'
_journal_volume A229
_journal_year 1955
_journal_page_first 459
_journal_page_last 467
_publ_section_title
;
 The lattice expansion of iron
 Sample: at T = 1189 K
;
_database_code_amcsd 0015347
_chemical_compound_source 'Synthetic'
_chemical_formula_sum 'FeGamma - AzdiTRWIP'
_cell_length_a 3.6599
_cell_length_b 3.6599
_cell_length_c 3.6599
_cell_angle_alpha 90
_cell_angle_beta 90
_cell_angle_gamma 90
_cell_volume 24.339
_exptl_crystal_density_diffrn      7.621
_symmetry_space_group_name_H-M 'I m -3 m'
loop_
_space_group_symop_operation_xyz
  'x,y,z'
  '1/2+x,1/2+y,1/2+z'
  'z,-x,y'
  '1/2+z,1/2-x,1/2+y'
  '-y,z,-x'
  '1/2-y,1/2+z,1/2-x'
  'x,-y,z'
  '1/2+x,1/2-y,1/2+z'
  '-z,x,-y'
  '1/2-z,1/2+x,1/2-y'
  'y,-z,x'
  '1/2+y,1/2-z,1/2+x'
  '-x,y,-z'
  '1/2-x,1/2+y,1/2-z'
  'x,-z,-y'
  '1/2+x,1/2-z,1/2-y'
  '-z,y,x'
  '1/2-z,1/2+y,1/2+x'
  'y,-x,-z'
  '1/2+y,1/2-x,1/2-z'
  '-x,z,y'
  '1/2-x,1/2+z,1/2+y'
  'z,-y,-x'
  '1/2+z,1/2-y,1/2-x'
  '-y,x,z'
  '1/2-y,1/2+x,1/2+z'
  'x,z,y'
  '1/2+x,1/2+z,1/2+y'
  '-z,-y,-x'
  '1/2-z,1/2-y,1/2-x'
  'y,x,z'
  '1/2+y,1/2+x,1/2+z'
  '-x,-z,-y'
  '1/2-x,1/2-z,1/2-y'
  'z,y,x'
  '1/2+z,1/2+y,1/2+x'
  '-y,-x,-z'
  '1/2-y,1/2-x,1/2-z'
  'z,x,-y'
  '1/2+z,1/2+x,1/2-y'
  '-y,-z,x'
  '1/2-y,1/2-z,1/2+x'
  'x,y,-z'
  '1/2+x,1/2+y,1/2-z'
  '-z,-x,y'
  '1/2-z,1/2-x,1/2+y'
  'y,z,-x'
  '1/2+y,1/2+z,1/2-x'
  '-x,-y,z'
  '1/2-x,1/2-y,1/2+z'
  '-z,x,y'
  '1/2-z,1/2+x,1/2+y'
  'y,-z,-x'
  '1/2+y,1/2-z,1/2-x'
  '-x,y,z'
  '1/2-x,1/2+y,1/2+z'
  'z,-x,-y'
  '1/2+z,1/2-x,1/2-y'
  '-y,z,x'
  '1/2-y,1/2+z,1/2+x'
  'x,-y,-z'
  '1/2+x,1/2-y,1/2-z'
  '-x,z,-y'
  '1/2-x,1/2+z,1/2-y'
  'z,-y,x'
  '1/2+z,1/2-y,1/2+x'
  '-y,x,-z'
  '1/2-y,1/2+x,1/2-z'
  'x,-z,y'
  '1/2+x,1/2-z,1/2+y'
  '-z,y,-x'
  '1/2-z,1/2+y,1/2-x'
  'y,-x,z'
  '1/2+y,1/2-x,1/2+z'
  '-x,-z,y'
  '1/2-x,1/2-z,1/2+y'
  'z,y,-x'
  '1/2+z,1/2+y,1/2-x'
  '-y,-x,z'
  '1/2-y,1/2-x,1/2+z'
  'x,z,-y'
  '1/2+x,1/2+z,1/2-y'
  '-z,-y,x'
  '1/2-z,1/2-y,1/2+x'
  'y,x,-z'
  '1/2+y,1/2+x,1/2-z'
  '-z,-x,-y'
  '1/2-z,1/2-x,1/2-y'
  'y,z,x'
  '1/2+y,1/2+z,1/2+x'
  '-x,-y,-z'
  '1/2-x,1/2-y,1/2-z'
  'z,x,y'
  '1/2+z,1/2+x,1/2+y'
  '-y,-z,-x'
  '1/2-y,1/2-z,1/2-x'
loop_
_atom_site_label
_atom_site_fract_x
_atom_site_fract_y
_atom_site_fract_z
Fe   0.00000   0.00000   0.00000
